/*--------------------------------*- C++ -*----------------------------------*\
| =========                 |                                                 |
| \\      /  F ield         | OpenFOAM: The Open Source CFD Toolbox           |
|  \\    /   O peration     | Version:  2.2.0                                 |
|   \\  /    A nd           | Web:      www.OpenFOAM.org                      |
|    \\/     M anipulation  |                                                 |
\*---------------------------------------------------------------------------*/
FoamFile
{
    version     2.0;
    format      ascii;
    class       volScalarField;
    location    "0";
    object      T0;
}
// * * * * * * * * * * * * * * * * * * * * * * * * * * * * * * * * * * * * * //

dimensions      [0 0 0 1 0 0 0];

internalField   uniform 1;

boundaryField
{
    bottom
    {
        type            codedFixedValue;
        value           $internalField;
        redirectType    temperature;
        code
        #{
            scalar alpha;
            db().lookupObject<IOdictionary>("nondimensionalProperties").lookup("alpha") >> alpha;
            scalar pi = constant::mathematical::pi;
            (*this)== 1 - alpha*cos(2*pi*patch().Cf().component(vector::X));
        #};
    }
    top
    {
        type symmetryPlane;
    }
    left
    {
        type symmetryPlane;
    }
    right
    {
        type symmetryPlane;
    }
    frontAndBack
    {
        type empty;
    }
}

// ************************************************************************* //
