/*--------------------------------*- C++ -*----------------------------------*\
| =========                 |                                                 |
| \\      /  F ield         | OpenFOAM: The Open Source CFD Toolbox           |
|  \\    /   O peration     | Version:  2.2.0                                 |
|   \\  /    A nd           | Web:      www.OpenFOAM.org                      |
|    \\/     M anipulation  |                                                 |
\*---------------------------------------------------------------------------*/
FoamFile
{
    version     2.0;
    format      ascii;
    class       volScalarField;
    location    "0";
    object      T;
}
// * * * * * * * * * * * * * * * * * * * * * * * * * * * * * * * * * * * * * //

dimensions      [0 0 0 1 0 0 0];

internalField   uniform 1;

boundaryField
{
    bottom
    {
        type fixedValue;
        value nonuniform List<scalar> 
50
(
0.500247
0.502219
0.506156
0.512042
0.519853
0.52956
0.541123
0.554497
0.569629
0.58646
0.604922
0.624944
0.646447
0.669344
0.693546
0.718958
0.745479
0.773005
0.801426
0.830631
0.860504
0.890928
0.921783
0.952946
0.984295
1.01571
1.04705
1.07822
1.10907
1.1395
1.16937
1.19857
1.227
1.25452
1.28104
1.30645
1.33066
1.35355
1.37506
1.39508
1.41354
1.43037
1.4455
1.45888
1.47044
1.48015
1.48796
1.49384
1.49778
1.49975
);
    }
    top
    {
        type symmetryPlane;
    }
    left
    {
        type symmetryPlane;
    }
    right
    {
        type symmetryPlane;
    }
    frontAndBack
    {
        type empty;
    }
}

// ************************************************************************* //
