/*--------------------------------*- C++ -*----------------------------------*\
| =========                 |                                                 |
| \\      /  F ield         | OpenFOAM: The Open Source CFD Toolbox           |
|  \\    /   O peration     | Version:  2.2.0                                 |
|   \\  /    A nd           | Web:      www.OpenFOAM.org                      |
|    \\/     M anipulation  |                                                 |
\*---------------------------------------------------------------------------*/
FoamFile
{
    version     2.0;
    format      ascii;
    class       volVectorField;
    location    "0";
    object      U1;
}
// * * * * * * * * * * * * * * * * * * * * * * * * * * * * * * * * * * * * * //

dimensions      [0 1 -1 0 0 0 0];

internalField   uniform (0 0 0);

boundaryField
{
    bottom
    {
        type fixedValue;
        value nonuniform List<vector> 
50
(
(0.045108 0 0)
(0.135412 0 0)
(0.225974 0 0)
(0.316941 0 0)
(0.408427 0 0)
(0.500501 0 0)
(0.593177 0 0)
(0.686405 0 0)
(0.780069 0 0)
(0.873985 0 0)
(0.967896 0 0)
(1.061478 0 0)
(1.154344 0 0)
(1.246047 0 0)
(1.336085 0 0)
(1.423914 0 0)
(1.508950 0 0)
(1.590582 0 0)
(1.668178 0 0)
(1.741096 0 0)
(1.808692 0 0)
(1.870330 0 0)
(1.925388 0 0)
(1.973270 0 0)
(2.013410 0 0)
(2.045284 0 0)
(2.068411 0 0)
(2.082366 0 0)
(2.086780 0 0)
(2.081347 0 0)
(2.065829 0 0)
(2.040060 0 0)
(2.003948 0 0)
(1.957474 0 0)
(1.900700 0 0)
(1.833763 0 0)
(1.756882 0 0)
(1.670347 0 0)
(1.574528 0 0)
(1.469866 0 0)
(1.356872 0 0)
(1.236122 0 0)
(1.108257 0 0)
(0.973970 0 0)
(0.834011 0 0)
(0.689171 0 0)
(0.540283 0 0)
(0.388212 0 0)
(0.233849 0 0)
(0.078104 0 0)
);
    }
    top
    {
        type symmetryPlane;
    }
    left
    {
        type symmetryPlane;
    }
    right
    {
        type symmetryPlane;
    }
    frontAndBack
    {
        type empty;
    }
}

// ************************************************************************* //
