/*--------------------------------*- C++ -*----------------------------------*\
| =========                 |                                                 |
| \\      /  F ield         | OpenFOAM: The Open Source CFD Toolbox           |
|  \\    /   O peration     | Version:  2.2.0                                 |
|   \\  /    A nd           | Web:      www.OpenFOAM.org                      |
|    \\/     M anipulation  |                                                 |
\*---------------------------------------------------------------------------*/
FoamFile
{
    version     2.0;
    format      ascii;
    class       volVectorField;
    location    "0";
    object      U1;
}
// * * * * * * * * * * * * * * * * * * * * * * * * * * * * * * * * * * * * * //

dimensions      [0 1 -1 0 0 0 0];

internalField   uniform (0 0 0);

boundaryField
{
    bottom
    {
        type            codedFixedValue;
        value           $internalField;
        redirectType    velocity;
        code
        #{
            scalar alpha, K1;
            db().lookupObject<IOdictionary>("nondimensionalProperties").lookup("alpha") >> alpha;
            db().lookupObject<IOdictionary>("knudsenLayerProperties").lookup("K1") >> K1;
            const fvPatchField<scalar>& T0 = patch().lookupPatchField<volScalarField, scalar>("T0");
            vectorField nf = patch().nf();
            volVectorField _gradT0 = fvc::grad(db().lookupObject<volScalarField>("T0"));
            Field<vector> gradT0 = _gradT0.boundaryField()[patch().index()];
            (*this)== -K1 * sqrt(T0) * (gradT0 - (gradT0 & nf)*nf);
        #};
        codeInclude
        #{
            #include "fvCFD.H"              // need for fvc::grad
        #};
        codeOptions
        #{
            -I$(LIB_SRC)/finiteVolume/lnInclude
        #};
    }
    top
    {
        type symmetryPlane;
    }
    left
    {
        type symmetryPlane;
    }
    right
    {
        type symmetryPlane;
    }
    frontAndBack
    {
        type empty;
    }
}

// ************************************************************************* //
